begin
comment # CELL(abcABC):   12.42000    12.42000    12.42000    90.00000    90.00000    90.00000  Traj: positions{Angstrom} Step:       42035  Bead:       0
lattice        23.470398        0.000000        0.000000
lattice         0.000000       23.470398        0.000000
lattice         0.000000        0.000000       23.470398
atom     46.754470    29.975781    12.063747  O        0.000000     0.000000     0.038718     0.000377     0.005666
atom     48.188394    31.230559    11.845710  H        0.000000     0.000000    -0.026388    -0.008687     0.000397
atom     47.505447    28.796781    13.301045  H        0.000000     0.000000    -0.017143     0.001342    -0.010281
atom      9.672979    -0.319636   -47.916274  O        0.000000     0.000000    -0.002891     0.009831    -0.016604
atom      8.881637    -1.088006   -49.445440  H        0.000000     0.000000     0.009433    -0.001915     0.033135
atom      9.302574    -1.157145   -46.324179  H        0.000000     0.000000    -0.001429    -0.008113    -0.013483
atom      2.347191    17.646867     4.322749  O        0.000000     0.000000     0.010640     0.007342     0.001382
atom      3.318510    19.230420     4.518940  H        0.000000     0.000000    -0.010025    -0.029159    -0.001649
atom      3.334592    16.150015     4.914082  H        0.000000     0.000000    -0.009666     0.025423    -0.000062
atom    -26.549707    23.749511     7.681000  O        0.000000     0.000000    -0.003246     0.004442     0.001122
atom    -25.622419    25.144507     6.925695  H        0.000000     0.000000    -0.000021    -0.004544    -0.001245
atom    -26.089748    22.151937     6.899579  H        0.000000     0.000000    -0.001023     0.009211    -0.000452
atom     18.633172     4.790078    27.089413  O        0.000000     0.000000    -0.011383     0.011133     0.003443
atom     19.450384     4.603902    25.475776  H        0.000000     0.000000    -0.006692     0.004659     0.000042
atom     17.109259     5.830013    26.831654  H        0.000000     0.000000     0.015547    -0.014016     0.000791
atom     -1.773147    -1.240341    35.721871  O        0.000000     0.000000    -0.015109     0.015301    -0.000129
atom     -2.343071    -0.229658    34.164548  H        0.000000     0.000000     0.021065    -0.031144     0.016714
atom     -0.456811    -2.494306    35.428963  H        0.000000     0.000000    -0.001563     0.011350    -0.014253
atom    -23.888217    16.528301    -6.627477  O        0.000000     0.000000    -0.003833     0.060038    -0.047641
atom    -23.991018    15.195892    -5.551241  H        0.000000     0.000000     0.013633    -0.046823     0.035336
atom    -22.174046    17.031818    -7.057182  H        0.000000     0.000000    -0.006850    -0.016763     0.008323
atom    -41.567928    34.239192    16.505643  O        0.000000     0.000000     0.001982    -0.005984    -0.000514
atom    -41.359113    32.511604    17.087867  H        0.000000     0.000000     0.006637     0.014121    -0.002014
atom    -39.987928    35.190102    16.685110  H        0.000000     0.000000    -0.006826    -0.008836     0.004038
atom     33.562481    20.138055     3.754262  O        0.000000     0.000000     0.034121    -0.005786    -0.000985
atom     35.147205    20.908308     4.414476  H        0.000000     0.000000    -0.021028    -0.001758    -0.000807
atom     34.323852    18.790492     2.735076  H        0.000000     0.000000    -0.012804     0.008875     0.003961
atom     28.714388    24.641840    11.769479  O        0.000000     0.000000    -0.011940    -0.004664     0.013075
atom     29.269401    26.127353    10.859803  H        0.000000     0.000000    -0.008880     0.003572     0.001729
atom     27.205253    25.055879    12.849079  H        0.000000     0.000000     0.026083    -0.004332    -0.012849
atom     47.685916    14.380967   -14.441533  O        0.000000     0.000000    -0.027239     0.004932     0.007678
atom     45.910707    14.800392   -13.851012  H        0.000000     0.000000     0.024920    -0.011925    -0.001344
atom     47.548533    13.764387   -16.146878  H        0.000000     0.000000     0.000704     0.000920     0.004488
atom     17.257168     3.684153    -7.017007  O        0.000000     0.000000    -0.020169    -0.022112     0.013249
atom     16.140680     2.418604    -6.155651  H        0.000000     0.000000     0.015559     0.020542    -0.012328
atom     16.965470     3.550096    -8.819220  H        0.000000     0.000000     0.001783    -0.000667     0.003668
atom     -5.905073    20.222715    38.406794  O        0.000000     0.000000    -0.009311    -0.003675     0.000209
atom     -5.669878    20.746547    40.147421  H        0.000000     0.000000     0.005339    -0.001738    -0.011329
atom     -4.503331    20.775460    37.358374  H        0.000000     0.000000     0.006573     0.004692     0.010755
atom      9.528434    14.589290    17.464490  O        0.000000     0.000000    -0.021091     0.000012    -0.073221
atom     10.853491    13.916189    16.280406  H        0.000000     0.000000    -0.005051     0.009591     0.028938
atom      9.956268    14.303866    19.112312  H        0.000000     0.000000     0.020505    -0.010393     0.046359
atom    -12.868128    26.725263     5.972498  O        0.000000     0.000000     0.007563     0.001163    -0.012159
atom    -13.779996    27.562033     7.307873  H        0.000000     0.000000    -0.002567    -0.002979     0.007472
atom    -11.284443    26.036080     6.529722  H        0.000000     0.000000    -0.002722    -0.006452     0.004747
atom     15.103409    47.728435    20.855395  O        0.000000     0.000000    -0.019924     0.006145    -0.009144
atom     16.147729    46.498979    21.648702  H        0.000000     0.000000    -0.001981    -0.004689     0.005290
atom     13.326065    47.309860    21.213688  H        0.000000     0.000000     0.018684     0.000149     0.002863
atom     15.874607    37.555283    22.921811  O        0.000000     0.000000    -0.024941     0.001163     0.006852
atom     16.724586    37.859529    21.349937  H        0.000000     0.000000     0.002675     0.002439    -0.007063
atom     14.215994    38.472178    22.641565  H        0.000000     0.000000     0.026051    -0.006091     0.010037
atom     30.409662   -18.398468    32.575099  O        0.000000     0.000000     0.009981     0.033592     0.017943
atom     29.365588   -17.425618    31.461105  H        0.000000     0.000000    -0.010888    -0.006699    -0.016962
atom     30.852992   -17.020914    33.730478  H        0.000000     0.000000     0.008277    -0.010943     0.000392
atom      9.572767     9.595916   -11.384523  O        0.000000     0.000000    -0.001206     0.008417    -0.011485
atom     11.277999     9.641213   -12.062443  H        0.000000     0.000000    -0.002375    -0.005608     0.008158
atom      8.888176    11.192942   -11.971604  H        0.000000     0.000000    -0.003394    -0.003473     0.004574
atom     25.844083    32.189028   -22.654226  O        0.000000     0.000000    -0.009478     0.007094     0.010091
atom     25.122019    32.832102   -21.069690  H        0.000000     0.000000    -0.000030    -0.011756    -0.021886
atom     24.512771    31.194465   -23.509138  H        0.000000     0.000000    -0.000319     0.005122     0.010303
atom     14.612269    -1.081611    29.577426  O        0.000000     0.000000    -0.035027    -0.005140     0.025219
atom     16.019057    -0.540396    28.710798  H        0.000000     0.000000     0.037770     0.011509    -0.033715
atom     15.079259    -0.831423    31.324100  H        0.000000     0.000000    -0.007346    -0.006974     0.003313
atom     18.430537    21.014888    25.568750  O        0.000000     0.000000     0.028385    -0.007689     0.026689
atom     19.219082    20.022593    27.028942  H        0.000000     0.000000    -0.018470     0.024347    -0.040759
atom     19.651829    22.395711    25.200254  H        0.000000     0.000000    -0.009606    -0.011509     0.010668
atom     19.796771    -8.528769   -11.876721  O        0.000000     0.000000    -0.001158    -0.013721     0.007912
atom     19.997271    -7.966311   -10.154028  H        0.000000     0.000000     0.004206     0.008677    -0.003560
atom     19.589657   -10.366792   -11.606131  H        0.000000     0.000000     0.000342     0.009720    -0.007158
atom     48.280991    25.630544    14.857575  O        0.000000     0.000000    -0.015960     0.001956     0.016397
atom     47.847110    26.141526    16.598901  H        0.000000     0.000000     0.004850    -0.005103    -0.015992
atom     46.906404    24.484048    14.345724  H        0.000000     0.000000     0.007692     0.005259    -0.002630
atom     28.521636    -6.148583    -8.134534  O        0.000000     0.000000    -0.011438     0.019692    -0.015534
atom     29.961041    -7.175800    -8.375285  H        0.000000     0.000000     0.013210    -0.016553     0.001799
atom     28.368569    -5.303290    -9.786381  H        0.000000     0.000000    -0.005681    -0.001553     0.015949
atom     15.288773   -14.677881    22.339775  O        0.000000     0.000000    -0.004219    -0.023650     0.022652
atom     15.392859   -12.881488    22.541787  H        0.000000     0.000000     0.000981     0.012380     0.007468
atom     14.730188   -15.451138    23.955869  H        0.000000     0.000000     0.003844     0.014177    -0.020734
atom     -3.942555   -13.675041    36.162555  O        0.000000     0.000000    -0.002558    -0.003886    -0.026321
atom     -2.700834   -14.951286    35.612456  H        0.000000     0.000000    -0.001420     0.003451     0.006722
atom     -3.992217   -13.821721    37.941732  H        0.000000     0.000000     0.000876     0.000831     0.028738
atom     31.105270    38.131839    47.724466  O        0.000000     0.000000     0.005014    -0.005189     0.003964
atom     29.835563    38.994121    46.757116  H        0.000000     0.000000    -0.004080     0.001601    -0.007299
atom     30.937084    36.284631    47.459527  H        0.000000     0.000000    -0.002529     0.008884     0.005813
atom     13.600605   -39.882670    27.278386  O        0.000000     0.000000     0.016441     0.031350    -0.002907
atom     12.669744   -41.203966    28.077740  H        0.000000     0.000000    -0.008067    -0.001531     0.007245
atom     13.700061   -38.327992    28.353640  H        0.000000     0.000000    -0.008423    -0.021553    -0.011054
atom    -16.266800   -13.799347    24.558314  O        0.000000     0.000000     0.026426    -0.023812     0.016800
atom    -17.723326   -14.787731    25.171719  H        0.000000     0.000000     0.012950     0.012275    -0.013717
atom    -14.729999   -14.806099    24.992762  H        0.000000     0.000000    -0.030283     0.016878    -0.010039
atom     29.129750    44.757974    30.840141  O        0.000000     0.000000    -0.003928     0.004629    -0.004786
atom     29.889987    46.206638    31.696376  H        0.000000     0.000000    -0.000568    -0.017251    -0.007492
atom     30.347868    43.537589    30.239964  H        0.000000     0.000000     0.009311     0.015194     0.003243
atom     45.565076    24.762215     1.118461  O        0.000000     0.000000    -0.005075    -0.003750     0.002406
atom     46.295644    25.745440     2.449973  H        0.000000     0.000000     0.003221    -0.002061     0.000107
atom     46.950057    23.967207     0.223742  H        0.000000     0.000000     0.006720     0.003830     0.002335
atom    -32.429779    22.588463   -12.204532  O        0.000000     0.000000    -0.006584    -0.011942     0.003007
atom    -34.200074    22.729248   -11.782027  H        0.000000     0.000000    -0.003023     0.006354     0.004047
atom    -31.826767    21.334630   -11.008921  H        0.000000     0.000000     0.008351     0.004978     0.004766
atom      4.863021    41.489126    21.080840  O        0.000000     0.000000    -0.051071     0.003010    -0.041485
atom      2.958688    41.135180    21.321591  H        0.000000     0.000000     0.047033     0.005606    -0.006076
atom      5.044737    41.633690    19.152185  H        0.000000     0.000000    -0.003553    -0.007564     0.047105
atom     19.470037    19.752362    20.286021  O        0.000000     0.000000    -0.000945     0.007617    -0.004812
atom     21.092934    18.959244    20.422648  H        0.000000     0.000000     0.003805    -0.002077     0.001597
atom     18.956599    20.000483    22.024947  H        0.000000     0.000000    -0.000267    -0.005858     0.003082
atom    -20.207219    23.214152    22.565220  O        0.000000     0.000000     0.001832    -0.032790    -0.011312
atom    -19.486478    24.702311    21.809140  H        0.000000     0.000000     0.003399    -0.007016    -0.007714
atom    -19.586822    21.624136    21.690087  H        0.000000     0.000000    -0.005914     0.036977     0.018042
atom    -15.249769    27.877807    48.291951  O        0.000000     0.000000     0.010764    -0.002832     0.016655
atom    -14.168694    27.455831    49.736836  H        0.000000     0.000000    -0.005245     0.007176    -0.003682
atom    -14.683134    26.601864    47.135061  H        0.000000     0.000000    -0.000738    -0.010048    -0.012057
atom     45.638587    32.591729     5.360756  O        0.000000     0.000000     0.002353    -0.018810     0.008816
atom     44.358864    33.465538     4.446412  H        0.000000     0.000000    -0.009056     0.005469    -0.004603
atom     45.164076    30.784206     5.502372  H        0.000000     0.000000     0.003835     0.021904    -0.005264
atom     11.881899    -6.357530    -0.933878  O        0.000000     0.000000    -0.003604    -0.010409     0.010205
atom     11.602578    -5.223279    -2.307261  H        0.000000     0.000000    -0.005441     0.005592    -0.006933
atom     10.284778    -7.182962    -0.481748  H        0.000000     0.000000     0.001074     0.002530    -0.002280
atom    -33.530922     7.616163    -5.415180  O        0.000000     0.000000     0.034222    -0.026149    -0.037829
atom    -32.883313     7.952648    -3.739390  H        0.000000     0.000000    -0.002692     0.006936     0.021959
atom    -32.037283     6.617027    -6.068270  H        0.000000     0.000000    -0.028223     0.017715     0.006477
atom     20.920024    -4.867689     6.473332  O        0.000000     0.000000     0.026230    -0.003506     0.012924
atom     20.238211    -5.204211     8.103089  H        0.000000     0.000000    -0.019044    -0.002677     0.008986
atom     22.720177    -5.033418     6.923276  H        0.000000     0.000000    -0.008452    -0.000044    -0.020991
atom      3.821820     9.135994     6.169842  O        0.000000     0.000000    -0.008372    -0.003154     0.027503
atom      3.785367     9.700304     7.926305  H        0.000000     0.000000     0.008655    -0.003402     0.000695
atom      1.999538     8.797525     6.072125  H        0.000000     0.000000     0.003982     0.000074    -0.013395
atom     18.695873   -10.208697    27.441847  O        0.000000     0.000000    -0.011237     0.011619    -0.022696
atom     17.854170    -9.668122    25.811580  H        0.000000     0.000000     0.011057    -0.008628     0.020402
atom     19.643325    -8.739190    27.978340  H        0.000000     0.000000    -0.005799    -0.004193    -0.001205
atom    -27.224717   -12.938482    18.202050  O        0.000000     0.000000     0.055258    -0.010356    -0.000128
atom    -25.324976   -12.708068    18.386771  H        0.000000     0.000000    -0.042059    -0.002565    -0.003376
atom    -27.891035   -11.250768    18.337430  H        0.000000     0.000000    -0.006277     0.009411     0.000344
atom     28.790355    -9.561372    29.517522  O        0.000000     0.000000    -0.001015     0.014923     0.014203
atom     28.667334   -11.372391    29.361998  H        0.000000     0.000000    -0.004536    -0.005780    -0.008157
atom     29.612953    -8.962895    28.043725  H        0.000000     0.000000     0.018909    -0.003920    -0.019634
atom     13.346304   -55.327402    10.476396  O        0.000000     0.000000     0.000386     0.023280    -0.029923
atom     13.790163   -53.540665    10.206127  H        0.000000     0.000000    -0.002444    -0.022599     0.008217
atom     13.362461   -56.023955     8.744934  H        0.000000     0.000000     0.007277    -0.000806     0.014222
atom      2.933063    57.256812    11.442141  O        0.000000     0.000000    -0.005355     0.029313    -0.010476
atom      3.970598    57.710913    12.869526  H        0.000000     0.000000     0.001614    -0.000804     0.004561
atom      1.993415    58.857032    10.955555  H        0.000000     0.000000     0.012521    -0.023295     0.003381
atom     14.084922    11.584116     6.544197  O        0.000000     0.000000     0.019843    -0.009118     0.007006
atom     14.568447    10.671246     8.138484  H        0.000000     0.000000     0.000340     0.013800    -0.018226
atom     15.659669    12.072232     5.627774  H        0.000000     0.000000    -0.014024    -0.003510     0.017050
atom     13.727991    12.832771    15.287053  O        0.000000     0.000000     0.010752     0.016967     0.044248
atom     13.270621    12.373889    13.667520  H        0.000000     0.000000    -0.001437    -0.015089    -0.038342
atom     14.089628    11.346067    16.281049  H        0.000000     0.000000    -0.005851    -0.006936    -0.006462
atom      9.854941    23.572444    14.113514  O        0.000000     0.000000     0.005363    -0.006276    -0.003765
atom      9.826633    25.109736    15.080147  H        0.000000     0.000000     0.002976     0.011677     0.001817
atom      8.282084    23.686394    13.185148  H        0.000000     0.000000    -0.009428    -0.001607    -0.000066
atom     38.252214   -14.354700    34.712568  O        0.000000     0.000000     0.020944    -0.040066    -0.013630
atom     40.112839   -14.323368    35.246605  H        0.000000     0.000000    -0.024219     0.009680    -0.004569
atom     38.072312   -16.196956    34.299096  H        0.000000     0.000000     0.003167     0.028050     0.009241
atom     16.321224    27.254764    10.762312  O        0.000000     0.000000     0.025455     0.031564    -0.017949
atom     15.936079    25.527176    11.062759  H        0.000000     0.000000    -0.006971    -0.023162    -0.001598
atom     17.717694    27.302385     9.528453  H        0.000000     0.000000    -0.019707    -0.004145     0.017030
atom     -1.760922     6.803751    -1.215466  O        0.000000     0.000000    -0.011930    -0.005034    -0.015159
atom     -2.708337     7.828039    -2.424197  H        0.000000     0.000000     0.002729    -0.003640     0.011709
atom     -1.839945     5.114600    -1.957473  H        0.000000     0.000000     0.003029     0.003548     0.002788
atom      9.456454     5.008851    16.370641  O        0.000000     0.000000    -0.000953    -0.031718     0.017866
atom     11.030577     5.745863    16.948084  H        0.000000     0.000000     0.005484     0.010731     0.008317
atom      8.733313     6.192576    15.299468  H        0.000000     0.000000    -0.008360     0.024790    -0.025814
atom      9.347757    20.242179    -5.313702  O        0.000000     0.000000    -0.002016    -0.016678     0.037391
atom      9.664796    21.453116    -6.553608  H        0.000000     0.000000     0.006062     0.022630    -0.033693
atom      8.655437    18.811808    -6.152589  H        0.000000     0.000000    -0.000605    -0.006040    -0.003384
atom    -21.804794   -11.254075   -26.855465  O        0.000000     0.000000    -0.003764    -0.013125     0.007007
atom    -20.472537   -11.835997   -27.968325  H        0.000000     0.000000     0.001588     0.010018    -0.007414
atom    -21.658340   -12.476388   -25.481067  H        0.000000     0.000000    -0.001493     0.004825     0.003321
atom      5.057512    28.252161    -3.478872  O        0.000000     0.000000    -0.019117    -0.005566     0.000036
atom      5.568154    28.475716    -1.771977  H        0.000000     0.000000     0.002505     0.009048     0.010419
atom      6.499996    28.674137    -4.443011  H        0.000000     0.000000     0.019915    -0.004019    -0.010165
atom     31.657637    15.325490    10.609886  O        0.000000     0.000000    -0.021619    -0.001572    -0.013954
atom     30.676869    15.356481     9.041376  H        0.000000     0.000000     0.002771    -0.006091     0.013545
atom     33.375776    15.309219    10.039113  H        0.000000     0.000000     0.011364     0.002210     0.007224
atom     47.132037    28.077740   -16.611449  O        0.000000     0.000000     0.004688    -0.015604    -0.023751
atom     47.372599    28.228729   -14.848561  H        0.000000     0.000000     0.001096     0.004719     0.021603
atom     48.738871    27.502129   -17.340259  H        0.000000     0.000000    -0.004087     0.001933     0.003114
atom     28.071693     2.717218    28.288066  O        0.000000     0.000000    -0.001335    -0.007581    -0.004242
atom     28.148982     0.889847    28.114967  H        0.000000     0.000000     0.002280     0.013924     0.000016
atom     29.279795     3.427075    27.085445  H        0.000000     0.000000    -0.007987    -0.006333    -0.001031
atom    -20.837254    19.256687    10.739521  O        0.000000     0.000000    -0.013510     0.000677     0.020949
atom    -19.781464    20.112733     9.507458  H        0.000000     0.000000     0.003636    -0.004992    -0.003563
atom    -20.938732    17.477038    10.417455  H        0.000000     0.000000     0.000717    -0.001108    -0.011627
atom     23.093587    -6.959313   -23.949066  O        0.000000     0.000000    -0.000214    -0.002581    -0.016696
atom     23.934893    -6.706052   -22.367743  H        0.000000     0.000000     0.005164    -0.001547     0.009383
atom     23.606459    -8.564598   -24.672453  H        0.000000     0.000000     0.001638     0.005346     0.007629
atom     17.369833    -8.405672    18.187953  O        0.000000     0.000000     0.016360     0.032609    -0.034001
atom     18.426984    -6.805093    18.261444  H        0.000000     0.000000    -0.027994    -0.029698    -0.003602
atom     16.470192    -8.471264    16.505397  H        0.000000     0.000000     0.012797     0.003405     0.034625
atom     45.116455     2.460008    42.651119  O        0.000000     0.000000    -0.027854    -0.025573    -0.030393
atom     45.653893     0.710832    42.745794  H        0.000000     0.000000    -0.001758     0.008254     0.009329
atom     43.486000     2.280881    41.637848  H        0.000000     0.000000     0.031874     0.017125     0.018676
energy  -1103.966370
charge      0.000000
end
begin
comment # CELL(abcABC):   12.42000    12.42000    12.42000    90.00000    90.00000    90.00000  Traj: positions{Angstrom} Step:       19060  Bead:       0
lattice        23.470398        0.000000        0.000000
lattice         0.000000       23.470398        0.000000
lattice         0.000000        0.000000       23.470398
atom     40.394408    24.614250     3.113740  O        0.000000     0.000000     0.002613    -0.013558     0.023735
atom     40.240584    25.315905     1.491580  H        0.000000     0.000000    -0.001103     0.015766    -0.025133
atom     41.496496    25.729377     4.051346  H        0.000000     0.000000     0.006091     0.003440     0.003498
atom     11.423054     1.754565   -25.926853  O        0.000000     0.000000     0.039058    -0.023185    -0.011515
atom     11.221421     2.351141   -27.626473  H        0.000000     0.000000     0.000995     0.008248    -0.010482
atom      9.941188     2.174791   -25.060792  H        0.000000     0.000000    -0.030559     0.010581     0.019557
atom      1.700015    18.588159     1.359830  O        0.000000     0.000000    -0.028579     0.043349     0.017177
atom      3.034201    17.498259     1.715036  H        0.000000     0.000000     0.028741    -0.030320     0.003991
atom      1.506310    19.566413     2.935501  H        0.000000     0.000000    -0.001950    -0.014795    -0.020445
atom    -18.230906    26.180455    11.832766  O        0.000000     0.000000    -0.015105    -0.005924    -0.007637
atom    -20.009743    25.699897    11.585193  H        0.000000     0.000000     0.021423     0.007106     0.003926
atom    -17.889451    25.834068    13.596031  H        0.000000     0.000000    -0.003990    -0.003520     0.000870
atom     13.321700    13.929719    24.082481  O        0.000000     0.000000    -0.008867     0.010074    -0.006831
atom     14.395556    12.823228    24.973298  H        0.000000     0.000000     0.009251    -0.009242     0.010488
atom     12.963748    15.332652    25.221986  H        0.000000     0.000000    -0.003277    -0.003611    -0.002607
atom    -17.202290     7.534433    11.438550  O        0.000000     0.000000    -0.029942     0.021876    -0.013341
atom    -17.906799     5.821887    11.496262  H        0.000000     0.000000     0.002905     0.002957     0.002206
atom    -18.697744     8.579527    10.924450  H        0.000000     0.000000     0.029241    -0.018665     0.011588
atom    -26.418938    16.015845    -6.767808  O        0.000000     0.000000    -0.031929    -0.002469    -0.003025
atom    -27.596049    14.704809    -7.384823  H        0.000000     0.000000     0.022605     0.013721     0.011211
atom    -24.762593    15.541675    -7.239541  H        0.000000     0.000000     0.007668    -0.008290    -0.006321
atom    -26.335412    28.069992    17.002716  O        0.000000     0.000000     0.016891    -0.034603     0.015633
atom    -25.520184    27.358510    18.547662  H        0.000000     0.000000    -0.016818     0.015246    -0.020486
atom    -26.534400    29.851437    17.246982  H        0.000000     0.000000     0.003656     0.018819     0.004492
atom     35.362823    25.853910     3.339751  O        0.000000     0.000000    -0.021462     0.013799     0.030463
atom     36.922792    25.012226     3.656809  H        0.000000     0.000000     0.018149    -0.006385    -0.005370
atom     34.827275    26.278154     5.084610  H        0.000000     0.000000    -0.004352    -0.007612    -0.022772
atom     33.244251    21.755283    14.272875  O        0.000000     0.000000     0.023561     0.003889     0.023016
atom     33.904899    21.025093    15.860604  H        0.000000     0.000000    -0.010003     0.004902    -0.021591
atom     31.444476    21.493556    14.233833  H        0.000000     0.000000    -0.006742    -0.005807    -0.004509
atom     25.057390     9.488542    -6.833760  O        0.000000     0.000000     0.022734     0.049845    -0.004645
atom     25.689693    11.239108    -7.348937  H        0.000000     0.000000    -0.007802    -0.037418     0.013789
atom     24.249533     9.073123    -8.382561  H        0.000000     0.000000    -0.003935    -0.015218    -0.013223
atom     32.568296     8.207874    -7.126989  O        0.000000     0.000000    -0.020216    -0.015411    -0.019491
atom     33.466483     6.577192    -7.387639  H        0.000000     0.000000    -0.009041     0.012573     0.005235
atom     30.996044     8.010209    -8.168927  H        0.000000     0.000000     0.029073     0.005023     0.006827
atom    -19.449439    22.703548    53.534240  O        0.000000     0.000000     0.023505    -0.018879    -0.020042
atom    -18.972850    21.844478    55.062084  H        0.000000     0.000000    -0.001182     0.004203     0.000604
atom    -18.215618    21.943878    52.237132  H        0.000000     0.000000    -0.017792     0.016613     0.021505
atom      6.072767    15.321654     1.673640  O        0.000000     0.000000     0.006098    -0.014260     0.004997
atom      7.050700    16.160050     0.381689  H        0.000000     0.000000     0.001259    -0.001342    -0.002691
atom      6.559580    13.522257     1.582139  H        0.000000     0.000000    -0.003247     0.015519    -0.000192
atom    -11.773107    31.516852     8.273410  O        0.000000     0.000000    -0.024046    -0.004808     0.069500
atom    -11.844482    30.903825     6.656674  H        0.000000     0.000000    -0.002159    -0.017723    -0.053043
atom    -13.115814    30.585028     9.256143  H        0.000000     0.000000     0.023898     0.020411    -0.019994
atom     19.759732    40.106224    22.854537  O        0.000000     0.000000    -0.022915    -0.015424    -0.010971
atom     21.427416    40.583380    22.335429  H        0.000000     0.000000    -0.000305    -0.002188    -0.004013
atom     18.811732    39.350712    21.410975  H        0.000000     0.000000     0.022581     0.017496     0.016459
atom     -0.202316    35.623227    21.109942  O        0.000000     0.000000    -0.012679    -0.001613     0.006480
atom     -1.566591    36.107186    22.234707  H        0.000000     0.000000     0.006836     0.000595    -0.006227
atom      0.357878    37.170535    20.292824  H        0.000000     0.000000     0.003765    -0.001401     0.005798
atom     25.879610   -30.566698    42.694771  O        0.000000     0.000000     0.029267    -0.063079     0.003021
atom     25.101799   -29.029784    42.582711  H        0.000000     0.000000    -0.023911     0.056366    -0.011888
atom     26.384167   -31.124734    41.014427  H        0.000000     0.000000    -0.004083     0.004015     0.000145
atom     -1.656215     8.698013     6.030910  O        0.000000     0.000000    -0.032893    -0.010649    -0.036592
atom     -0.994045     8.997364     7.644604  H        0.000000     0.000000     0.023413     0.006787     0.029572
atom     -0.463030     8.697389     4.650351  H        0.000000     0.000000     0.018391     0.000477     0.006681
atom     29.004083    27.965112   -18.234440  O        0.000000     0.000000     0.004816     0.010464    -0.005751
atom     28.723270    26.275697   -17.671301  H        0.000000     0.000000    -0.002058    -0.009468     0.006857
atom     30.311774    28.615934   -17.146298  H        0.000000     0.000000    -0.006795    -0.003243    -0.006830